
FAST Summary File

Predictions were generated on 17-Jul-2019 at 13:03:04 using OpenFAST, compiled as a 64-bit application using double precision at commit v2.1.0-130-g2d9230df-dirty
  compiled with
    NWTC Subroutine Library
    ElastoDyn
    BeamDyn [not called]
    InflowWind [not called]
    AeroDyn14 [not called]
    AeroDyn [not called]
    ServoDyn [not called]
    HydroDyn [not called]
    SubDyn [not called]
    ExtPtfm_MCKF [not called]
    MAP [not called]
    FEAMooring [not called]
    MoorDyn [not called]
    OrcaFlexInterface [not called]
    IceFloe [not called]
    IceDyn [not called]


Modeling a land-based turbine
Description from the FAST input file: 
  FAST Certification Test #01: AWT-27CR2 with many DOFs with fixed yaw error and steady wind

Interpolation order for input/output time histories: 1 (linear)
Number of correction iterations:  0


   Requested Time Steps  
  -------------------------------------------------
  Component          Time Step (s)    Subcycles (-)
  -----------------  ---------------  -------------
  FAST (glue code)    4.000E-03
  ElastoDyn           4.000E-03              1
  FAST output files   2.000E-02              5^-1


   Requested Channels in FAST Output File(s)  
  --------------------------------------------
  Number  Name        Units       Generated by
  ------  ----------  ----------  ------------
       1  Time        (s)         OpenFAST
       2  HSShftPwr   (kW)        ElastoDyn
       3  HSShftTq    (kN-m)      ElastoDyn
       4  HSShftV     (rpm)       ElastoDyn
       5  LSSGagFxs   (kN)        ElastoDyn
       6  LSSGagFys   (kN)        ElastoDyn
       7  LSSGagFzs   (kN)        ElastoDyn
       8  LSSGagV     (rpm)       ElastoDyn
       9  LSShftPwr   (kW)        ElastoDyn
      10  LSShftTq    (kN-m)      ElastoDyn
      11  RootFxb3    (kN)        ElastoDyn
      12  RootFyb3    (kN)        ElastoDyn
      13  RootMEdg3   (kN-m)      ElastoDyn
      14  RootMFlp3   (kN-m)      ElastoDyn
      15  RotSpeed    (rpm)       ElastoDyn
      16  Spn4MLxb1   (kN-m)      ElastoDyn
      17  Spn4MLyb1   (kN-m)      ElastoDyn
      18  Spn5ALxb1   (m/s^2)     ElastoDyn
      19  Spn5ALyb1   (m/s^2)     ElastoDyn
      20  TipDxb3     (m)         ElastoDyn
      21  TipDyb3     (m)         ElastoDyn
      22  TipRDxb3    (deg)       ElastoDyn
      23  TipRDyb3    (deg)       ElastoDyn
