
Predictions were generated on 17-Jul-2019 at 13:03:04 using OpenFAST, compiled as a 64-bit application using double precision at commit v2.1.0-130-g2d9230df-dirty
 linked with  NWTC Subroutine Library; ElastoDyn

Description from the FAST input file: FAST Certification Test #01: AWT-27CR2 with many DOFs with fixed yaw error and steady wind

Time      	HSShftPwr 	HSShftTq  	HSShftV   	LSSGagFxs 	LSSGagFys 	LSSGagFzs 	LSSGagV   	LSShftPwr 	LSShftTq  	RootFxb3  	RootFyb3  	RootMEdg3 	RootMFlp3 	RotSpeed  	Spn4MLxb1 	Spn4MLyb1 	Spn5ALxb1 	Spn5ALyb1 	TipDxb3   	TipDyb3   	TipRDxb3  	TipRDyb3  
(s)       	(kW)      	(kN-m)    	(rpm)     	(kN)      	(kN)      	(kN)      	(rpm)     	(kW)      	(kN-m)    	(kN)      	(kN)      	(kN-m)    	(kN-m)    	(rpm)     	(kN-m)    	(kN-m)    	(m/s^2)   	(m/s^2)   	(m)       	(m)       	(deg)     	(deg)     
   10.0000	 6.168E-13	 5.970E-08	 9.866E-05	 3.549E-07	-2.115E-07	-6.684E+00	 3.492E-06	 6.358E-13	 1.687E-06	-1.072E-01	 1.227E+00	-3.539E+00	-3.088E-01	 3.600E-06	-1.465E-03	 2.766E-02	 2.310E-04	-9.261E-06	-2.659E-03	 5.173E-03	-7.246E-02	-4.205E-02
   10.0200	 3.801E-13	 3.644E-08	 9.959E-05	-3.525E-06	 2.115E-07	-6.684E+00	 3.525E-06	 3.840E-13	 1.030E-06	-1.072E-01	 1.227E+00	-3.539E+00	-3.088E-01	 3.562E-06	-1.465E-03	 2.766E-02	 2.746E-04	-9.788E-06	-2.659E-03	 5.173E-03	-7.246E-02	-4.205E-02
   10.0400	 7.471E-14	 7.133E-09	 1.000E-04	-6.389E-06	 5.683E-07	-6.684E+00	 3.540E-06	 7.381E-14	 2.015E-07	-1.072E-01	 1.227E+00	-3.539E+00	-3.089E-01	 3.498E-06	-1.465E-03	 2.766E-02	 2.469E-04	-7.863E-06	-2.659E-03	 5.173E-03	-7.246E-02	-4.205E-02
   10.0600	-2.149E-13	-2.055E-08	 9.988E-05	-7.533E-06	 7.695E-07	-6.684E+00	 3.535E-06	-2.084E-13	-5.806E-07	-1.072E-01	 1.227E+00	-3.539E+00	-3.089E-01	 3.427E-06	-1.465E-03	 2.767E-02	 1.572E-04	-4.059E-06	-2.659E-03	 5.173E-03	-7.246E-02	-4.206E-02
   10.0800	-4.115E-13	-3.958E-08	 9.929E-05	-6.717E-06	 7.683E-07	-6.684E+00	 3.515E-06	-3.946E-13	-1.118E-06	-1.072E-01	 1.227E+00	-3.539E+00	-3.090E-01	 3.371E-06	-1.465E-03	 2.767E-02	 3.045E-05	 5.919E-07	-2.660E-03	 5.173E-03	-7.246E-02	-4.207E-02
   10.1000	-4.674E-13	-4.533E-08	 9.845E-05	-4.206E-06	 5.708E-07	-6.684E+00	 3.485E-06	-4.483E-13	-1.281E-06	-1.072E-01	 1.227E+00	-3.539E+00	-3.090E-01	 3.343E-06	-1.464E-03	 2.768E-02	-9.995E-05	 4.877E-06	-2.660E-03	 5.173E-03	-7.246E-02	-4.208E-02
   10.1200	-3.757E-13	-3.674E-08	 9.765E-05	-6.941E-07	 2.332E-07	-6.684E+00	 3.456E-06	-3.644E-13	-1.038E-06	-1.072E-01	 1.227E+00	-3.539E+00	-3.090E-01	 3.353E-06	-1.464E-03	 2.768E-02	-2.007E-04	 7.718E-06	-2.660E-03	 5.173E-03	-7.246E-02	-4.208E-02
   10.1400	-1.670E-13	-1.642E-08	 9.712E-05	 2.892E-06	-1.543E-07	-6.684E+00	 3.438E-06	-1.650E-13	-4.638E-07	-1.072E-01	 1.227E+00	-3.539E+00	-3.090E-01	 3.398E-06	-1.464E-03	 2.768E-02	-2.471E-04	 8.441E-06	-2.660E-03	 5.173E-03	-7.246E-02	-4.208E-02
   10.1600	 1.025E-13	 1.008E-08	 9.706E-05	 5.631E-06	-4.911E-07	-6.684E+00	 3.436E-06	 1.034E-13	 2.849E-07	-1.072E-01	 1.227E+00	-3.539E+00	-3.090E-01	 3.468E-06	-1.464E-03	 2.768E-02	-2.290E-04	 6.934E-06	-2.660E-03	 5.173E-03	-7.246E-02	-4.207E-02
   10.1800	 3.656E-13	 3.580E-08	 9.750E-05	 6.849E-06	-6.927E-07	-6.684E+00	 3.451E-06	 3.755E-13	 1.011E-06	-1.072E-01	 1.227E+00	-3.539E+00	-3.089E-01	 3.545E-06	-1.464E-03	 2.768E-02	-1.533E-04	 3.655E-06	-2.659E-03	 5.173E-03	-7.246E-02	-4.206E-02
   10.2000	 5.582E-13	 5.419E-08	 9.838E-05	 6.279E-06	-7.115E-07	-6.684E+00	 3.482E-06	 5.790E-13	 1.531E-06	-1.072E-01	 1.227E+00	-3.539E+00	-3.089E-01	 3.612E-06	-1.465E-03	 2.767E-02	-4.102E-05	-5.018E-07	-2.659E-03	 5.173E-03	-7.246E-02	-4.206E-02
   10.2200	 6.329E-13	 6.075E-08	 9.950E-05	 4.120E-06	-5.479E-07	-6.684E+00	 3.522E-06	 6.565E-13	 1.716E-06	-1.072E-01	 1.227E+00	-3.539E+00	-3.089E-01	 3.653E-06	-1.465E-03	 2.767E-02	 7.807E-05	-4.449E-06	-2.659E-03	 5.173E-03	-7.246E-02	-4.205E-02
   10.2400	 5.706E-13	 5.416E-08	 1.006E-04	 9.704E-07	-2.491E-07	-6.684E+00	 3.562E-06	 5.865E-13	 1.530E-06	-1.072E-01	 1.227E+00	-3.539E+00	-3.088E-01	 3.661E-06	-1.465E-03	 2.767E-02	 1.734E-04	-7.189E-06	-2.659E-03	 5.173E-03	-7.246E-02	-4.205E-02
   10.2600	 3.879E-13	 3.649E-08	 1.015E-04	-2.334E-06	 1.047E-07	-6.684E+00	 3.593E-06	 3.925E-13	 1.031E-06	-1.072E-01	 1.227E+00	-3.539E+00	-3.089E-01	 3.636E-06	-1.465E-03	 2.766E-02	 2.216E-04	-8.065E-06	-2.659E-03	 5.173E-03	-7.246E-02	-4.205E-02
   10.2800	 1.346E-13	 1.260E-08	 1.020E-04	-4.943E-06	 4.215E-07	-6.684E+00	 3.610E-06	 1.337E-13	 3.560E-07	-1.072E-01	 1.227E+00	-3.539E+00	-3.089E-01	 3.587E-06	-1.465E-03	 2.767E-02	 2.117E-04	-6.917E-06	-2.659E-03	 5.173E-03	-7.246E-02	-4.206E-02
   10.3000	-1.198E-13	-1.122E-08	 1.020E-04	-6.210E-06	 6.215E-07	-6.684E+00	 3.610E-06	-1.171E-13	-3.170E-07	-1.072E-01	 1.227E+00	-3.539E+00	-3.089E-01	 3.529E-06	-1.465E-03	 2.767E-02	 1.483E-04	-4.104E-06	-2.659E-03	 5.173E-03	-7.246E-02	-4.206E-02
   10.3200	-3.072E-13	-2.888E-08	 1.016E-04	-5.851E-06	 6.568E-07	-6.684E+00	 3.596E-06	-2.973E-13	-8.159E-07	-1.072E-01	 1.227E+00	-3.539E+00	-3.089E-01	 3.480E-06	-1.465E-03	 2.767E-02	 4.924E-05	-3.996E-07	-2.660E-03	 5.173E-03	-7.246E-02	-4.207E-02
   10.3400	-3.811E-13	-3.605E-08	 1.009E-04	-4.006E-06	 5.233E-07	-6.684E+00	 3.573E-06	-3.682E-13	-1.018E-06	-1.072E-01	 1.227E+00	-3.539E+00	-3.090E-01	 3.452E-06	-1.464E-03	 2.768E-02	-5.916E-05	 3.223E-06	-2.660E-03	 5.173E-03	-7.246E-02	-4.207E-02
   10.3600	-3.276E-13	-3.120E-08	 1.003E-04	-1.191E-06	 2.600E-07	-6.684E+00	 3.550E-06	-3.189E-13	-8.814E-07	-1.072E-01	 1.227E+00	-3.539E+00	-3.090E-01	 3.455E-06	-1.464E-03	 2.768E-02	-1.490E-04	 5.846E-06	-2.660E-03	 5.173E-03	-7.246E-02	-4.207E-02
   10.3800	-1.665E-13	-1.593E-08	 9.982E-05	 1.845E-06	-6.215E-08	-6.684E+00	 3.533E-06	-1.644E-13	-4.501E-07	-1.072E-01	 1.227E+00	-3.539E+00	-3.090E-01	 3.488E-06	-1.464E-03	 2.768E-02	-1.980E-04	 6.834E-06	-2.660E-03	 5.173E-03	-7.246E-02	-4.207E-02
   10.4000	 5.787E-14	 5.542E-09	 9.971E-05	 4.318E-06	-3.591E-07	-6.684E+00	 3.530E-06	 5.812E-14	 1.566E-07	-1.072E-01	 1.227E+00	-3.539E+00	-3.090E-01	 3.544E-06	-1.464E-03	 2.768E-02	-1.950E-04	 5.992E-06	-2.660E-03	 5.173E-03	-7.246E-02	-4.207E-02
   10.4200	 2.885E-13	 2.754E-08	 1.000E-04	 5.614E-06	-5.556E-07	-6.684E+00	 3.541E-06	 2.941E-13	 7.781E-07	-1.072E-01	 1.227E+00	-3.539E+00	-3.089E-01	 3.610E-06	-1.464E-03	 2.768E-02	-1.425E-04	 3.596E-06	-2.659E-03	 5.173E-03	-7.246E-02	-4.206E-02
   10.4400	 4.686E-13	 4.443E-08	 1.007E-04	 5.435E-06	-6.045E-07	-6.684E+00	 3.566E-06	 4.823E-13	 1.255E-06	-1.072E-01	 1.227E+00	-3.539E+00	-3.089E-01	 3.670E-06	-1.465E-03	 2.768E-02	-5.537E-05	 3.069E-07	-2.659E-03	 5.173E-03	-7.246E-02	-4.206E-02
   10.4600	 5.539E-13	 5.203E-08	 1.017E-04	 3.871E-06	-4.975E-07	-6.684E+00	 3.599E-06	 5.711E-13	 1.470E-06	-1.072E-01	 1.227E+00	-3.539E+00	-3.089E-01	 3.710E-06	-1.465E-03	 2.767E-02	 4.299E-05	-3.007E-06	-2.659E-03	 5.173E-03	-7.246E-02	-4.205E-02
   10.4800	 5.233E-13	 4.868E-08	 1.026E-04	 1.364E-06	-2.665E-07	-6.684E+00	 3.634E-06	 5.362E-13	 1.375E-06	-1.072E-01	 1.227E+00	-3.539E+00	-3.089E-01	 3.723E-06	-1.465E-03	 2.767E-02	 1.272E-04	-5.503E-06	-2.659E-03	 5.173E-03	-7.246E-02	-4.205E-02
   10.5000	 3.853E-13	 3.556E-08	 1.035E-04	-1.418E-06	 2.586E-08	-6.684E+00	 3.662E-06	 3.902E-13	 1.005E-06	-1.072E-01	 1.227E+00	-3.539E+00	-3.089E-01	 3.709E-06	-1.465E-03	 2.767E-02	 1.763E-04	-6.571E-06	-2.659E-03	 5.173E-03	-7.246E-02	-4.205E-02
   10.5200	 1.777E-13	 1.632E-08	 1.040E-04	-3.754E-06	 3.032E-07	-6.684E+00	 3.680E-06	 1.773E-13	 4.611E-07	-1.072E-01	 1.227E+00	-3.539E+00	-3.089E-01	 3.672E-06	-1.465E-03	 2.767E-02	 1.790E-04	-5.989E-06	-2.659E-03	 5.173E-03	-7.246E-02	-4.206E-02
   10.5400	-4.291E-14	-3.937E-09	 1.041E-04	-5.061E-06	 4.949E-07	-6.684E+00	 3.684E-06	-4.223E-14	-1.112E-07	-1.072E-01	 1.227E+00	-3.539E+00	-3.089E-01	 3.626E-06	-1.465E-03	 2.767E-02	 1.360E-04	-3.960E-06	-2.659E-03	 5.173E-03	-7.246E-02	-4.206E-02
   10.5600	-2.175E-13	-2.000E-08	 1.038E-04	-5.034E-06	 5.547E-07	-6.684E+00	 3.676E-06	-2.120E-13	-5.651E-07	-1.072E-01	 1.227E+00	-3.539E+00	-3.089E-01	 3.583E-06	-1.465E-03	 2.767E-02	 5.977E-05	-1.050E-06	-2.660E-03	 5.173E-03	-7.246E-02	-4.207E-02
   10.5800	-3.019E-13	-2.789E-08	 1.034E-04	-3.720E-06	 4.710E-07	-6.684E+00	 3.659E-06	-2.935E-13	-7.879E-07	-1.072E-01	 1.227E+00	-3.539E+00	-3.090E-01	 3.557E-06	-1.464E-03	 2.767E-02	-2.918E-05	 1.972E-06	-2.660E-03	 5.173E-03	-7.246E-02	-4.207E-02
   10.6000	-2.782E-13	-2.583E-08	 1.028E-04	-1.494E-06	 2.694E-07	-6.684E+00	 3.640E-06	-2.717E-13	-7.296E-07	-1.072E-01	 1.227E+00	-3.539E+00	-3.090E-01	 3.555E-06	-1.464E-03	 2.768E-02	-1.078E-04	 4.331E-06	-2.660E-03	 5.173E-03	-7.246E-02	-4.207E-02
   10.6200	-1.570E-13	-1.464E-08	 1.024E-04	 1.048E-06	 4.803E-09	-6.684E+00	 3.626E-06	-1.550E-13	-4.135E-07	-1.072E-01	 1.227E+00	-3.539E+00	-3.090E-01	 3.580E-06	-1.464E-03	 2.768E-02	-1.564E-04	 5.451E-06	-2.660E-03	 5.173E-03	-7.246E-02	-4.207E-02
   10.6400	 2.730E-14	 2.548E-09	 1.023E-04	 3.246E-06	-2.533E-07	-6.684E+00	 3.622E-06	 2.732E-14	 7.197E-08	-1.072E-01	 1.227E+00	-3.539E+00	-3.089E-01	 3.624E-06	-1.464E-03	 2.768E-02	-1.637E-04	 5.088E-06	-2.660E-03	 5.173E-03	-7.246E-02	-4.207E-02
   10.6600	 2.271E-13	 2.115E-08	 1.025E-04	 4.548E-06	-4.392E-07	-6.684E+00	 3.630E-06	 2.302E-13	 5.975E-07	-1.072E-01	 1.227E+00	-3.539E+00	-3.089E-01	 3.679E-06	-1.464E-03	 2.768E-02	-1.290E-04	 3.385E-06	-2.659E-03	 5.173E-03	-7.246E-02	-4.206E-02
   10.6800	 3.927E-13	 3.637E-08	 1.031E-04	 4.648E-06	-5.074E-07	-6.684E+00	 3.650E-06	 4.016E-13	 1.028E-06	-1.072E-01	 1.227E+00	-3.539E+00	-3.089E-01	 3.732E-06	-1.464E-03	 2.768E-02	-6.263E-05	 8.195E-07	-2.659E-03	 5.173E-03	-7.246E-02	-4.206E-02
   10.7000	 4.833E-13	 4.442E-08	 1.039E-04	 3.556E-06	-4.441E-07	-6.684E+00	 3.678E-06	 4.955E-13	 1.255E-06	-1.072E-01	 1.227E+00	-3.539E+00	-3.089E-01	 3.771E-06	-1.465E-03	 2.767E-02	 1.754E-05	-1.926E-06	-2.659E-03	 5.173E-03	-7.246E-02	-4.206E-02
   10.7200	 4.766E-13	 4.345E-08	 1.047E-04	 1.587E-06	-2.691E-07	-6.684E+00	 3.708E-06	 4.869E-13	 1.227E-06	-1.072E-01	 1.227E+00	-3.539E+00	-3.089E-01	 3.788E-06	-1.465E-03	 2.767E-02	 9.064E-05	-4.147E-06	-2.659E-03	 5.173E-03	-7.246E-02	-4.205E-02
   10.7400	 3.754E-13	 3.398E-08	 1.055E-04	-7.286E-07	-3.044E-08	-6.684E+00	 3.734E-06	 3.801E-13	 9.599E-07	-1.072E-01	 1.227E+00	-3.539E+00	-3.089E-01	 3.781E-06	-1.465E-03	 2.767E-02	 1.383E-04	-5.296E-06	-2.659E-03	 5.173E-03	-7.246E-02	-4.205E-02
   10.7600	 2.074E-13	 1.868E-08	 1.060E-04	-2.789E-06	 2.090E-07	-6.684E+00	 3.752E-06	 2.075E-13	 5.278E-07	-1.072E-01	 1.227E+00	-3.539E+00	-3.089E-01	 3.755E-06	-1.465E-03	 2.767E-02	 1.492E-04	-5.116E-06	-2.659E-03	 5.173E-03	-7.246E-02	-4.206E-02
   10.7800	 1.831E-14	 1.647E-09	 1.062E-04	-4.075E-06	 3.881E-07	-6.684E+00	 3.759E-06	 1.811E-14	 4.652E-08	-1.072E-01	 1.227E+00	-3.539E+00	-3.089E-01	 3.718E-06	-1.465E-03	 2.767E-02	 1.218E-04	-3.698E-06	-2.659E-03	 5.173E-03	-7.246E-02	-4.206E-02
   10.8000	-1.413E-13	-1.272E-08	 1.061E-04	-4.280E-06	 4.628E-07	-6.684E+00	 3.755E-06	-1.385E-13	-3.593E-07	-1.072E-01	 1.227E+00	-3.539E+00	-3.089E-01	 3.682E-06	-1.464E-03	 2.767E-02	 6.428E-05	-1.445E-06	-2.659E-03	 5.173E-03	-7.246E-02	-4.206E-02
   10.8200	-2.305E-13	-2.082E-08	 1.058E-04	-3.384E-06	 4.171E-07	-6.684E+00	 3.744E-06	-2.253E-13	-5.881E-07	-1.072E-01	 1.227E+00	-3.539E+00	-3.089E-01	 3.658E-06	-1.464E-03	 2.767E-02	-7.744E-06	 1.042E-06	-2.660E-03	 5.173E-03	-7.246E-02	-4.207E-02
   10.8400	-2.291E-13	-2.077E-08	 1.053E-04	-1.649E-06	 2.661E-07	-6.684E+00	 3.729E-06	-2.245E-13	-5.867E-07	-1.072E-01	 1.227E+00	-3.539E+00	-3.090E-01	 3.654E-06	-1.464E-03	 2.768E-02	-7.545E-05	 3.122E-06	-2.660E-03	 5.173E-03	-7.246E-02	-4.207E-02
   10.8600	-1.410E-13	-1.283E-08	 1.050E-04	 4.551E-07	 5.160E-08	-6.684E+00	 3.717E-06	-1.393E-13	-3.623E-07	-1.072E-01	 1.227E+00	-3.539E+00	-3.090E-01	 3.671E-06	-1.464E-03	 2.768E-02	-1.218E-04	 4.279E-06	-2.660E-03	 5.173E-03	-7.246E-02	-4.207E-02
   10.8800	 8.160E-15	 7.429E-10	 1.049E-04	 2.380E-06	-1.699E-07	-6.684E+00	 3.713E-06	 8.146E-15	 2.099E-08	-1.072E-01	 1.227E+00	-3.539E+00	-3.089E-01	 3.707E-06	-1.464E-03	 2.768E-02	-1.356E-04	 4.251E-06	-2.660E-03	 5.173E-03	-7.246E-02	-4.207E-02
   10.9000	 1.793E-13	 1.630E-08	 1.051E-04	 3.639E-06	-3.415E-07	-6.684E+00	 3.719E-06	 1.809E-13	 4.604E-07	-1.072E-01	 1.227E+00	-3.539E+00	-3.089E-01	 3.753E-06	-1.464E-03	 2.768E-02	-1.144E-04	 3.083E-06	-2.659E-03	 5.173E-03	-7.246E-02	-4.207E-02
   10.9200	 3.293E-13	 2.980E-08	 1.055E-04	 3.929E-06	-4.208E-07	-6.684E+00	 3.734E-06	 3.349E-13	 8.419E-07	-1.072E-01	 1.227E+00	-3.539E+00	-3.089E-01	 3.799E-06	-1.464E-03	 2.768E-02	-6.483E-05	 1.113E-06	-2.659E-03	 5.173E-03	-7.246E-02	-4.206E-02
   10.9400	 4.209E-13	 3.786E-08	 1.062E-04	 3.206E-06	-3.904E-07	-6.684E+00	 3.758E-06	 4.296E-13	 1.070E-06	-1.072E-01	 1.227E+00	-3.539E+00	-3.089E-01	 3.835E-06	-1.464E-03	 2.767E-02	-3.437E-07	-1.133E-06	-2.659E-03	 5.173E-03	-7.246E-02	-4.206E-02
   10.9600	 4.319E-13	 3.858E-08	 1.069E-04	 1.684E-06	-2.610E-07	-6.684E+00	 3.784E-06	 4.399E-13	 1.090E-06	-1.072E-01	 1.227E+00	-3.539E+00	-3.089E-01	 3.854E-06	-1.465E-03	 2.767E-02	 6.214E-05	-3.072E-06	-2.659E-03	 5.173E-03	-7.246E-02	-4.206E-02
   10.9800	 3.605E-13	 3.200E-08	 1.076E-04	-2.225E-07	-6.881E-08	-6.684E+00	 3.808E-06	 3.648E-13	 9.039E-07	-1.072E-01	 1.227E+00	-3.539E+00	-3.089E-01	 3.854E-06	-1.465E-03	 2.767E-02	 1.068E-04	-4.223E-06	-2.659E-03	 5.173E-03	-7.246E-02	-4.206E-02
   11.0000	 2.264E-13	 2.001E-08	 1.081E-04	-2.015E-06	 1.354E-07	-6.684E+00	 3.826E-06	 2.270E-13	 5.651E-07	-1.072E-01	 1.227E+00	-3.539E+00	-3.089E-01	 3.836E-06	-1.465E-03	 2.767E-02	 1.228E-04	-4.317E-06	-2.659E-03	 5.173E-03	-7.246E-02	-4.206E-02
   11.0200	 6.626E-14	 5.840E-09	 1.083E-04	-3.239E-06	 2.990E-07	-6.684E+00	 3.835E-06	 6.578E-14	 1.650E-07	-1.072E-01	 1.227E+00	-3.539E+00	-3.089E-01	 3.807E-06	-1.465E-03	 2.767E-02	 1.070E-04	-3.368E-06	-2.659E-03	 5.173E-03	-7.246E-02	-4.206E-02
   11.0400	-7.726E-14	-6.811E-09	 1.083E-04	-3.598E-06	 3.815E-07	-6.684E+00	 3.834E-06	-7.612E-14	-1.924E-07	-1.072E-01	 1.227E+00	-3.539E+00	-3.089E-01	 3.778E-06	-1.464E-03	 2.767E-02	 6.455E-05	-1.652E-06	-2.659E-03	 5.173E-03	-7.246E-02	-4.206E-02
   11.0600	-1.671E-13	-1.476E-08	 1.081E-04	-3.025E-06	 3.641E-07	-6.684E+00	 3.827E-06	-1.640E-13	-4.169E-07	-1.072E-01	 1.227E+00	-3.539E+00	-3.089E-01	 3.757E-06	-1.464E-03	 2.767E-02	 7.009E-06	 3.690E-07	-2.660E-03	 5.173E-03	-7.246E-02	-4.207E-02
   11.0800	-1.819E-13	-1.611E-08	 1.078E-04	-1.697E-06	 2.542E-07	-6.684E+00	 3.816E-06	-1.787E-13	-4.551E-07	-1.072E-01	 1.227E+00	-3.539E+00	-3.089E-01	 3.750E-06	-1.464E-03	 2.767E-02	-5.044E-05	 2.170E-06	-2.660E-03	 5.173E-03	-7.246E-02	-4.207E-02
   11.1000	-1.207E-13	-1.072E-08	 1.075E-04	 2.646E-08	 8.252E-08	-6.684E+00	 3.806E-06	-1.193E-13	-3.028E-07	-1.072E-01	 1.227E+00	-3.539E+00	-3.090E-01	 3.762E-06	-1.464E-03	 2.768E-02	-9.319E-05	 3.300E-06	-2.660E-03	 5.173E-03	-7.246E-02	-4.207E-02
   11.1200	-1.857E-15	-1.650E-10	 1.074E-04	 1.691E-06	-1.052E-07	-6.684E+00	 3.803E-06	-1.851E-15	-4.662E-09	-1.072E-01	 1.227E+00	-3.539E+00	-3.089E-01	 3.790E-06	-1.464E-03	 2.768E-02	-1.108E-04	 3.494E-06	-2.660E-03	 5.173E-03	-7.246E-02	-4.207E-02
   11.1400	 1.430E-13	 1.270E-08	 1.075E-04	 2.873E-06	-2.605E-07	-6.684E+00	 3.807E-06	 1.438E-13	 3.587E-07	-1.072E-01	 1.227E+00	-3.539E+00	-3.089E-01	 3.829E-06	-1.464E-03	 2.768E-02	-9.967E-05	 2.735E-06	-2.659E-03	 5.173E-03	-7.246E-02	-4.207E-02
   11.1600	 2.769E-13	 2.451E-08	 1.079E-04	 3.285E-06	-3.448E-07	-6.684E+00	 3.819E-06	 2.805E-13	 6.924E-07	-1.072E-01	 1.227E+00	-3.539E+00	-3.089E-01	 3.869E-06	-1.464E-03	 2.768E-02	-6.351E-05	 1.247E-06	-2.659E-03	 5.173E-03	-7.246E-02	-4.206E-02
   11.1800	 3.666E-13	 3.228E-08	 1.085E-04	 2.844E-06	-3.384E-07	-6.684E+00	 3.839E-06	 3.727E-13	 9.120E-07	-1.072E-01	 1.227E+00	-3.539E+00	-3.089E-01	 3.902E-06	-1.464E-03	 2.767E-02	-1.236E-05	-5.658E-07	-2.659E-03	 5.173E-03	-7.246E-02	-4.206E-02
   11.2000	 3.901E-13	 3.415E-08	 1.091E-04	 1.689E-06	-2.459E-07	-6.684E+00	 3.862E-06	 3.963E-13	 9.647E-07	-1.072E-01	 1.227E+00	-3.539E+00	-3.089E-01	 3.923E-06	-1.464E-03	 2.767E-02	 4.029E-05	-2.232E-06	-2.659E-03	 5.173E-03	-7.246E-02	-4.206E-02
   11.2200	 3.425E-13	 2.981E-08	 1.097E-04	 1.371E-07	-9.317E-08	-6.684E+00	 3.884E-06	 3.462E-13	 8.421E-07	-1.072E-01	 1.227E+00	-3.539E+00	-3.089E-01	 3.926E-06	-1.465E-03	 2.767E-02	 8.097E-05	-3.331E-06	-2.659E-03	 5.173E-03	-7.246E-02	-4.206E-02
   11.2400	 2.372E-13	 2.056E-08	 1.102E-04	-1.404E-06	 7.885E-08	-6.684E+00	 3.901E-06	 2.381E-13	 5.807E-07	-1.072E-01	 1.227E+00	-3.539E+00	-3.089E-01	 3.915E-06	-1.465E-03	 2.767E-02	 9.972E-05	-3.604E-06	-2.659E-03	 5.173E-03	-7.246E-02	-4.206E-02
   11.2600	 1.031E-13	 8.910E-09	 1.105E-04	-2.539E-06	 2.257E-07	-6.684E+00	 3.911E-06	 1.026E-13	 2.517E-07	-1.072E-01	 1.227E+00	-3.539E+00	-3.089E-01	 3.894E-06	-1.464E-03	 2.767E-02	 9.249E-05	-3.008E-06	-2.659E-03	 5.173E-03	-7.246E-02	-4.206E-02
   11.2800	-2.412E-14	-2.083E-09	 1.105E-04	-2.991E-06	 3.106E-07	-6.684E+00	 3.913E-06	-2.385E-14	-5.886E-08	-1.072E-01	 1.227E+00	-3.539E+00	-3.089E-01	 3.870E-06	-1.464E-03	 2.767E-02	 6.195E-05	-1.725E-06	-2.659E-03	 5.173E-03	-7.246E-02	-4.206E-02
   11.3000	-1.114E-13	-9.631E-09	 1.104E-04	-2.665E-06	 3.136E-07	-6.684E+00	 3.909E-06	-1.097E-13	-2.721E-07	-1.072E-01	 1.227E+00	-3.539E+00	-3.089E-01	 3.852E-06	-1.464E-03	 2.767E-02	 1.663E-05	-1.045E-07	-2.659E-03	 5.173E-03	-7.246E-02	-4.207E-02
   11.3200	-1.374E-13	-1.191E-08	 1.102E-04	-1.666E-06	 2.364E-07	-6.684E+00	 3.901E-06	-1.354E-13	-3.363E-07	-1.072E-01	 1.227E+00	-3.539E+00	-3.089E-01	 3.845E-06	-1.464E-03	 2.767E-02	-3.144E-05	 1.430E-06	-2.660E-03	 5.173E-03	-7.246E-02	-4.207E-02
   11.3400	-9.775E-14	-8.485E-09	 1.100E-04	-2.720E-07	 1.011E-07	-6.684E+00	 3.894E-06	-9.672E-14	-2.397E-07	-1.072E-01	 1.227E+00	-3.539E+00	-3.089E-01	 3.853E-06	-1.464E-03	 2.768E-02	-6.995E-05	 2.491E-06	-2.660E-03	 5.173E-03	-7.246E-02	-4.207E-02
   11.3600	-4.769E-15	-4.143E-10	 1.099E-04	 1.150E-06	-5.604E-08	-6.684E+00	 3.891E-06	-4.749E-15	-1.170E-08	-1.072E-01	 1.227E+00	-3.539E+00	-3.089E-01	 3.875E-06	-1.464E-03	 2.768E-02	-8.940E-05	 2.825E-06	-2.660E-03	 5.173E-03	-7.246E-02	-4.207E-02
   11.3800	 1.164E-13	 1.010E-08	 1.100E-04	 2.235E-06	-1.943E-07	-6.684E+00	 3.894E-06	 1.168E-13	 2.854E-07	-1.072E-01	 1.227E+00	-3.539E+00	-3.089E-01	 3.907E-06	-1.464E-03	 2.768E-02	-8.546E-05	 2.370E-06	-2.659E-03	 5.173E-03	-7.246E-02	-4.207E-02
   11.4000	 2.345E-13	 2.030E-08	 1.103E-04	 2.716E-06	-2.788E-07	-6.684E+00	 3.904E-06	 2.367E-13	 5.735E-07	-1.072E-01	 1.227E+00	-3.539E+00	-3.089E-01	 3.942E-06	-1.464E-03	 2.768E-02	-5.989E-05	 1.270E-06	-2.659E-03	 5.173E-03	-7.246E-02	-4.206E-02
   11.4200	 3.200E-13	 2.759E-08	 1.108E-04	 2.488E-06	-2.897E-07	-6.684E+00	 3.921E-06	 3.242E-13	 7.793E-07	-1.072E-01	 1.227E+00	-3.539E+00	-3.089E-01	 3.972E-06	-1.464E-03	 2.767E-02	-1.991E-05	-1.744E-07	-2.659E-03	 5.173E-03	-7.246E-02	-4.206E-02
   11.4400	 3.518E-13	 3.018E-08	 1.113E-04	 1.630E-06	-2.262E-07	-6.684E+00	 3.941E-06	 3.565E-13	 8.525E-07	-1.072E-01	 1.227E+00	-3.539E+00	-3.089E-01	 3.993E-06	-1.464E-03	 2.767E-02	 2.385E-05	-1.584E-06	-2.659E-03	 5.173E-03	-7.246E-02	-4.206E-02
   11.4600	 3.229E-13	 2.756E-08	 1.119E-04	 3.815E-07	-1.068E-07	-6.684E+00	 3.961E-06	 3.261E-13	 7.785E-07	-1.072E-01	 1.227E+00	-3.539E+00	-3.089E-01	 4.000E-06	-1.464E-03	 2.767E-02	 6.012E-05	-2.601E-06	-2.659E-03	 5.173E-03	-7.246E-02	-4.206E-02
   11.4800	 2.418E-13	 2.055E-08	 1.123E-04	-9.271E-07	 3.639E-08	-6.684E+00	 3.977E-06	 2.428E-13	 5.806E-07	-1.072E-01	 1.227E+00	-3.539E+00	-3.089E-01	 3.994E-06	-1.464E-03	 2.767E-02	 7.991E-05	-2.979E-06	-2.659E-03	 5.173E-03	-7.246E-02	-4.206E-02
   11.5000	 1.307E-13	 1.108E-08	 1.127E-04	-1.959E-06	 1.661E-07	-6.684E+00	 3.988E-06	 1.305E-13	 3.131E-07	-1.072E-01	 1.227E+00	-3.539E+00	-3.089E-01	 3.979E-06	-1.464E-03	 2.767E-02	 7.872E-05	-2.645E-06	-2.659E-03	 5.173E-03	-7.246E-02	-4.206E-02
   11.5200	 1.947E-14	 1.649E-09	 1.128E-04	-2.459E-06	 2.495E-07	-6.684E+00	 3.992E-06	 1.931E-14	 4.657E-08	-1.072E-01	 1.227E+00	-3.539E+00	-3.089E-01	 3.960E-06	-1.464E-03	 2.767E-02	 5.754E-05	-1.707E-06	-2.659E-03	 5.173E-03	-7.246E-02	-4.206E-02
   11.5400	-6.305E-14	-5.341E-09	 1.127E-04	-2.315E-06	 2.668E-07	-6.684E+00	 3.991E-06	-6.232E-14	-1.509E-07	-1.072E-01	 1.227E+00	-3.539E+00	-3.089E-01	 3.945E-06	-1.464E-03	 2.767E-02	 2.239E-05	-4.242E-07	-2.659E-03	 5.173E-03	-7.246E-02	-4.206E-02
   11.5600	-9.635E-14	-8.171E-09	 1.126E-04	-1.583E-06	 2.154E-07	-6.684E+00	 3.986E-06	-9.519E-14	-2.308E-07	-1.072E-01	 1.227E+00	-3.539E+00	-3.089E-01	 3.938E-06	-1.464E-03	 2.767E-02	-1.731E-05	 8.653E-07	-2.660E-03	 5.173E-03	-7.246E-02	-4.207E-02
   11.5800	-7.353E-14	-6.244E-09	 1.125E-04	-4.688E-07	 1.104E-07	-6.684E+00	 3.981E-06	-7.284E-14	-1.764E-07	-1.072E-01	 1.227E+00	-3.539E+00	-3.089E-01	 3.943E-06	-1.464E-03	 2.767E-02	-5.131E-05	 1.833E-06	-2.660E-03	 5.173E-03	-7.246E-02	-4.207E-02
   11.6000	-2.304E-15	-1.957E-10	 1.124E-04	 7.320E-07	-1.960E-08	-6.684E+00	 3.978E-06	-2.293E-15	-5.529E-09	-1.072E-01	 1.227E+00	-3.539E+00	-3.089E-01	 3.960E-06	-1.464E-03	 2.768E-02	-7.115E-05	 2.244E-06	-2.660E-03	 5.173E-03	-7.246E-02	-4.207E-02
   11.6200	 9.778E-14	 8.303E-09	 1.125E-04	 1.709E-06	-1.408E-07	-6.684E+00	 3.981E-06	 9.793E-14	 2.346E-07	-1.072E-01	 1.227E+00	-3.539E+00	-3.089E-01	 3.987E-06	-1.464E-03	 2.768E-02	-7.223E-05	 2.012E-06	-2.659E-03	 5.173E-03	-7.246E-02	-4.207E-02
   11.6400	 2.007E-13	 1.700E-08	 1.127E-04	 2.220E-06	-2.225E-07	-6.684E+00	 3.989E-06	 2.021E-13	 4.804E-07	-1.072E-01	 1.227E+00	-3.539E+00	-3.089E-01	 4.017E-06	-1.464E-03	 2.767E-02	-5.488E-05	 1.218E-06	-2.659E-03	 5.173E-03	-7.246E-02	-4.206E-02
   11.6600	 2.804E-13	 2.368E-08	 1.131E-04	 2.148E-06	-2.449E-07	-6.684E+00	 4.003E-06	 2.833E-13	 6.689E-07	-1.072E-01	 1.227E+00	-3.539E+00	-3.089E-01	 4.045E-06	-1.464E-03	 2.767E-02	-2.413E-05	 8.281E-08	-2.659E-03	 5.173E-03	-7.246E-02	-4.206E-02
   11.6800	 3.173E-13	 2.668E-08	 1.136E-04	 1.528E-06	-2.041E-07	-6.684E+00	 4.021E-06	 3.208E-13	 7.536E-07	-1.072E-01	 1.227E+00	-3.539E+00	-3.089E-01	 4.065E-06	-1.464E-03	 2.767E-02	 1.177E-05	-1.093E-06	-2.659E-03	 5.173E-03	-7.246E-02	-4.206E-02
   11.7000	 3.028E-13	 2.535E-08	 1.141E-04	 5.367E-07	-1.124E-07	-6.684E+00	 4.038E-06	 3.055E-13	 7.161E-07	-1.072E-01	 1.227E+00	-3.539E+00	-3.089E-01	 4.074E-06	-1.464E-03	 2.767E-02	 4.351E-05	-2.009E-06	-2.659E-03	 5.173E-03	-7.246E-02	-4.206E-02
   11.7200	 2.418E-13	 2.016E-08	 1.145E-04	-5.623E-07	 5.366E-09	-6.684E+00	 4.054E-06	 2.428E-13	 5.695E-07	-1.072E-01	 1.227E+00	-3.539E+00	-3.089E-01	 4.072E-06	-1.464E-03	 2.767E-02	 6.315E-05	-2.441E-06	-2.659E-03	 5.173E-03	-7.246E-02	-4.206E-02
   11.7400	 1.510E-13	 1.255E-08	 1.148E-04	-1.484E-06	 1.183E-07	-6.684E+00	 4.065E-06	 1.508E-13	 3.546E-07	-1.072E-01	 1.227E+00	-3.539E+00	-3.089E-01	 4.062E-06	-1.464E-03	 2.767E-02	 6.608E-05	-2.295E-06	-2.659E-03	 5.173E-03	-7.246E-02	-4.206E-02
   11.7600	 5.479E-14	 4.550E-09	 1.150E-04	-1.999E-06	 1.977E-07	-6.684E+00	 4.071E-06	 5.448E-14	 1.285E-07	-1.072E-01	 1.227E+00	-3.539E+00	-3.089E-01	 4.048E-06	-1.464E-03	 2.767E-02	 5.209E-05	-1.628E-06	-2.659E-03	 5.173E-03	-7.246E-02	-4.206E-02
   11.7800	-2.159E-14	-1.792E-09	 1.150E-04	-1.987E-06	 2.242E-07	-6.684E+00	 4.072E-06	-2.140E-14	-5.063E-08	-1.072E-01	 1.227E+00	-3.539E+00	-3.089E-01	 4.035E-06	-1.464E-03	 2.767E-02	 2.530E-05	-6.274E-07	-2.659E-03	 5.173E-03	-7.246E-02	-4.206E-02
   11.8000	-5.901E-14	-4.902E-09	 1.150E-04	-1.467E-06	 1.927E-07	-6.684E+00	 4.069E-06	-5.843E-14	-1.385E-07	-1.072E-01	 1.227E+00	-3.539E+00	-3.089E-01	 4.029E-06	-1.464E-03	 2.767E-02	-7.055E-06	 4.414E-07	-2.659E-03	 5.173E-03	-7.246E-02	-4.207E-02
   11.8200	-4.910E-14	-4.082E-09	 1.149E-04	-5.876E-07	 1.129E-07	-6.684E+00	 4.066E-06	-4.869E-14	-1.153E-07	-1.072E-01	 1.227E+00	-3.539E+00	-3.089E-01	 4.032E-06	-1.464E-03	 2.767E-02	-3.656E-05	 1.304E-06	-2.660E-03	 5.173E-03	-7.246E-02	-4.207E-02
   11.8400	 4.090E-15	 3.402E-10	 1.148E-04	 4.153E-07	 6.587E-09	-6.684E+00	 4.065E-06	 4.072E-15	 9.609E-09	-1.072E-01	 1.227E+00	-3.539E+00	-3.089E-01	 4.046E-06	-1.464E-03	 2.768E-02	-5.581E-05	 1.748E-06	-2.660E-03	 5.173E-03	-7.246E-02	-4.207E-02
   11.8600	 8.571E-14	 7.124E-09	 1.149E-04	 1.282E-06	-9.826E-08	-6.684E+00	 4.067E-06	 8.573E-14	 2.012E-07	-1.072E-01	 1.227E+00	-3.539E+00	-3.089E-01	 4.068E-06	-1.464E-03	 2.768E-02	-6.021E-05	 1.674E-06	-2.659E-03	 5.173E-03	-7.246E-02	-4.206E-02
   11.8800	 1.743E-13	 1.446E-08	 1.151E-04	 1.794E-06	-1.749E-07	-6.684E+00	 4.074E-06	 1.752E-13	 4.086E-07	-1.072E-01	 1.227E+00	-3.539E+00	-3.089E-01	 4.094E-06	-1.464E-03	 2.767E-02	-4.915E-05	 1.119E-06	-2.659E-03	 5.173E-03	-7.246E-02	-4.206E-02
   11.9000	 2.474E-13	 2.046E-08	 1.154E-04	 1.832E-06	-2.046E-07	-6.684E+00	 4.086E-06	 2.494E-13	 5.781E-07	-1.072E-01	 1.227E+00	-3.539E+00	-3.089E-01	 4.119E-06	-1.464E-03	 2.767E-02	-2.593E-05	 2.395E-07	-2.659E-03	 5.173E-03	-7.246E-02	-4.206E-02
   11.9200	 2.868E-13	 2.363E-08	 1.159E-04	 1.401E-06	-1.812E-07	-6.684E+00	 4.101E-06	 2.893E-13	 6.677E-07	-1.072E-01	 1.227E+00	-3.539E+00	-3.089E-01	 4.138E-06	-1.464E-03	 2.767E-02	 3.138E-06	-7.288E-07	-2.659E-03	 5.173E-03	-7.246E-02	-4.206E-02
   11.9400	 2.832E-13	 2.325E-08	 1.163E-04	 6.240E-07	-1.122E-07	-6.684E+00	 4.117E-06	 2.853E-13	 6.567E-07	-1.072E-01	 1.227E+00	-3.539E+00	-3.089E-01	 4.149E-06	-1.464E-03	 2.767E-02	 3.047E-05	-1.537E-06	-2.659E-03	 5.173E-03	-7.246E-02	-4.206E-02
   11.9600	 2.385E-13	 1.951E-08	 1.167E-04	-2.887E-07	-1.651E-08	-6.684E+00	 4.132E-06	 2.395E-13	 5.511E-07	-1.072E-01	 1.227E+00	-3.539E+00	-3.089E-01	 4.150E-06	-1.464E-03	 2.767E-02	 4.916E-05	-1.985E-06	-2.659E-03	 5.173E-03	-7.246E-02	-4.206E-02
   11.9800	 1.652E-13	 1.348E-08	 1.170E-04	-1.100E-06	 8.053E-08	-6.684E+00	 4.143E-06	 1.652E-13	 3.808E-07	-1.072E-01	 1.227E+00	-3.539E+00	-3.089E-01	 4.144E-06	-1.464E-03	 2.767E-02	 5.473E-05	-1.970E-06	-2.659E-03	 5.173E-03	-7.246E-02	-4.206E-02
   12.0000	 8.306E-14	 6.766E-09	 1.172E-04	-1.605E-06	 1.541E-07	-6.684E+00	 4.150E-06	 8.274E-14	 1.911E-07	-1.072E-01	 1.227E+00	-3.539E+00	-3.089E-01	 4.134E-06	-1.464E-03	 2.767E-02	 4.619E-05	-1.513E-06	-2.659E-03	 5.173E-03	-7.246E-02	-4.206E-02
   12.0200	 1.362E-14	 1.109E-09	 1.173E-04	-1.685E-06	 1.862E-07	-6.684E+00	 4.153E-06	 1.353E-14	 3.133E-08	-1.072E-01	 1.227E+00	-3.539E+00	-3.089E-01	 4.124E-06	-1.464E-03	 2.767E-02	 2.617E-05	-7.443E-07	-2.659E-03	 5.173E-03	-7.246E-02	-4.206E-02
   12.0400	-2.552E-14	-2.078E-09	 1.173E-04	-1.331E-06	 1.697E-07	-6.684E+00	 4.152E-06	-2.531E-14	-5.869E-08	-1.072E-01	 1.227E+00	-3.539E+00	-3.089E-01	 4.119E-06	-1.464E-03	 2.767E-02	 1.471E-07	 1.301E-07	-2.659E-03	 5.173E-03	-7.246E-02	-4.206E-02
   12.0600	-2.522E-14	-2.054E-09	 1.173E-04	-6.479E-07	 1.104E-07	-6.684E+00	 4.151E-06	-2.504E-14	-5.802E-08	-1.072E-01	 1.227E+00	-3.539E+00	-3.089E-01	 4.121E-06	-1.464E-03	 2.767E-02	-2.507E-05	 8.839E-07	-2.659E-03	 5.173E-03	-7.246E-02	-4.207E-02
   12.0800	 1.322E-14	 1.077E-09	 1.172E-04	 1.805E-07	 2.463E-08	-6.684E+00	 4.150E-06	 1.316E-14	 3.041E-08	-1.072E-01	 1.227E+00	-3.539E+00	-3.089E-01	 4.132E-06	-1.464E-03	 2.767E-02	-4.308E-05	 1.329E-06	-2.659E-03	 5.173E-03	-7.246E-02	-4.207E-02
   12.1000	 7.886E-14	 6.419E-09	 1.173E-04	 9.377E-07	-6.491E-08	-6.684E+00	 4.152E-06	 7.881E-14	 1.813E-07	-1.072E-01	 1.227E+00	-3.539E+00	-3.089E-01	 4.150E-06	-1.464E-03	 2.767E-02	-4.954E-05	 1.364E-06	-2.659E-03	 5.173E-03	-7.246E-02	-4.206E-02
   12.1200	 1.543E-13	 1.254E-08	 1.175E-04	 1.432E-06	-1.352E-07	-6.684E+00	 4.159E-06	 1.548E-13	 3.543E-07	-1.072E-01	 1.227E+00	-3.539E+00	-3.089E-01	 4.172E-06	-1.464E-03	 2.767E-02	-4.318E-05	 9.921E-07	-2.659E-03	 5.173E-03	-7.246E-02	-4.206E-02
   12.1400	 2.202E-13	 1.785E-08	 1.178E-04	 1.545E-06	-1.689E-07	-6.684E+00	 4.169E-06	 2.215E-13	 5.043E-07	-1.072E-01	 1.227E+00	-3.539E+00	-3.089E-01	 4.195E-06	-1.464E-03	 2.767E-02	-2.603E-05	 3.224E-07	-2.659E-03	 5.173E-03	-7.246E-02	-4.206E-02
   12.1600	 2.601E-13	 2.102E-08	 1.182E-04	 1.260E-06	-1.585E-07	-6.684E+00	 4.183E-06	 2.620E-13	 5.938E-07	-1.072E-01	 1.227E+00	-3.539E+00	-3.089E-01	 4.213E-06	-1.464E-03	 2.767E-02	-2.804E-06	-4.646E-07	-2.659E-03	 5.173E-03	-7.246E-02	-4.206E-02
   12.1800	 2.645E-13	 2.130E-08	 1.186E-04	 6.610E-07	-1.078E-07	-6.684E+00	 4.197E-06	 2.662E-13	 6.017E-07	-1.072E-01	 1.227E+00	-3.539E+00	-3.089E-01	 4.225E-06	-1.464E-03	 2.767E-02	 2.038E-05	-1.165E-06	-2.659E-03	 5.173E-03	-7.246E-02	-4.206E-02
   12.2000	 2.330E-13	 1.871E-08	 1.190E-04	-8.870E-08	-3.116E-08	-6.684E+00	 4.211E-06	 2.340E-13	 5.285E-07	-1.072E-01	 1.227E+00	-3.539E+00	-3.089E-01	 4.229E-06	-1.464E-03	 2.767E-02	 3.763E-05	-1.603E-06	-2.659E-03	 5.173E-03	-7.246E-02	-4.206E-02
   12.2200	 1.747E-13	 1.399E-08	 1.193E-04	-7.930E-07	 5.121E-08	-6.684E+00	 4.222E-06	 1.749E-13	 3.952E-07	-1.072E-01	 1.227E+00	-3.539E+00	-3.089E-01	 4.226E-06	-1.464E-03	 2.767E-02	 4.474E-05	-1.677E-06	-2.659E-03	 5.173E-03	-7.246E-02	-4.206E-02
   12.2400	 1.054E-13	 8.423E-09	 1.195E-04	-1.273E-06	 1.181E-07	-6.684E+00	 4.229E-06	 1.051E-13	 2.380E-07	-1.072E-01	 1.227E+00	-3.539E+00	-3.089E-01	 4.219E-06	-1.464E-03	 2.767E-02	 4.023E-05	-1.379E-06	-2.659E-03	 5.173E-03	-7.246E-02	-4.206E-02
   12.2600	 4.324E-14	 3.453E-09	 1.196E-04	-1.413E-06	 1.528E-07	-6.684E+00	 4.233E-06	 4.302E-14	 9.755E-08	-1.072E-01	 1.227E+00	-3.539E+00	-3.089E-01	 4.211E-06	-1.464E-03	 2.767E-02	 2.563E-05	-7.986E-07	-2.659E-03	 5.173E-03	-7.246E-02	-4.206E-02
   12.2800	 4.170E-15	 3.328E-10	 1.196E-04	-1.188E-06	 1.474E-07	-6.684E+00	 4.235E-06	 4.142E-15	 9.403E-09	-1.072E-01	 1.227E+00	-3.539E+00	-3.089E-01	 4.207E-06	-1.464E-03	 2.767E-02	 4.986E-06	-9.255E-08	-2.659E-03	 5.173E-03	-7.246E-02	-4.206E-02