
FAST Summary File

Predictions were generated on 24-Jul-2019 at 14:04:32 using OpenFAST, compiled as a 64-bit application using double precision at commit v2.1.0-130-g2d9230df-dirty
  compiled with
    NWTC Subroutine Library
    ElastoDyn
    BeamDyn [not called]
    InflowWind
    AeroDyn14
    AeroDyn [not called]
    ServoDyn
    HydroDyn [not called]
    SubDyn [not called]
    ExtPtfm_MCKF [not called]
    MAP [not called]
    FEAMooring [not called]
    MoorDyn [not called]
    OrcaFlexInterface [not called]
    IceFloe [not called]
    IceDyn [not called]


Modeling a land-based turbine
Description from the FAST input file: 
  FAST Certification Test #01: AWT-27CR2 with many DOFs with fixed yaw error and steady wind

Interpolation order for input/output time histories: 1 (linear)
Number of correction iterations:  0


   Requested Time Steps  
  -------------------------------------------------
  Component          Time Step (s)    Subcycles (-)
  -----------------  ---------------  -------------
  FAST (glue code)    5.000E-03
  InflowWind          5.000E-03              1
  ElastoDyn           5.000E-03              1
  AeroDyn14           5.000E-03              1
  ServoDyn            5.000E-03              1
  FAST output files   5.000E-02             10^-1


   Requested Channels in FAST Output File(s)  
  --------------------------------------------
  Number  Name        Units       Generated by
  ------  ----------  ----------  ------------
       1  Time        (s)         OpenFAST
       2  Wind1VelX   (m/s)       InflowWind
       3  Wind1VelY   (m/s)       InflowWind
       4  Wind1VelZ   (m/s)       InflowWind
       5  HSShftPwr   (kW)        ElastoDyn
       6  HSShftTq    (kN-m)      ElastoDyn
       7  HSShftV     (rpm)       ElastoDyn
       8  LSSGagFxs   (kN)        ElastoDyn
       9  LSSGagFys   (kN)        ElastoDyn
      10  LSSGagFzs   (kN)        ElastoDyn
      11  LSSGagV     (rpm)       ElastoDyn
      12  LSShftPwr   (kW)        ElastoDyn
      13  LSShftTq    (kN-m)      ElastoDyn
      14  RootFxb3    (kN)        ElastoDyn
      15  RootFyb3    (kN)        ElastoDyn
      16  RootMEdg3   (kN-m)      ElastoDyn
      17  RootMFlp3   (kN-m)      ElastoDyn
      18  RotSpeed    (rpm)       ElastoDyn
      19  Spn4MLxb1   (kN-m)      ElastoDyn
      20  Spn4MLyb1   (kN-m)      ElastoDyn
      21  Spn5ALxb1   (m/s^2)     ElastoDyn
      22  Spn5ALyb1   (m/s^2)     ElastoDyn
      23  TipDxb3     (m)         ElastoDyn
      24  TipDyb3     (m)         ElastoDyn
      25  TipRDxb3    (deg)       ElastoDyn
      26  TipRDyb3    (deg)       ElastoDyn
      27  GenPwr      (kW)        ServoDyn
      28  GenTq       (kN-m)      ServoDyn
